{
    "Name": "Ethanol",
    "Formula": "C2H5OH",
    "MolecularMass_amu": 46.07,
    "MolecularMass_g_mol": 46.07,
    "BondType": "Covalent",
    "Geometry": "Tetrahedral",
    "BondAngle_deg": 109.5,
    "Polarity": "Polar",
    "MeltingPoint_K": 159.0,
    "BoilingPoint_K": 351.5,
    "Density_g_cm3": 0.789,
    "State_STP": "Liquid",
    "Composition": [
        {"Element": "C", "Count": 2},
        {"Element": "H", "Count": 6},
        {"Element": "O", "Count": 1}
    ],
    "Bonds": [
        {"From": "C", "To": "C", "Type": "Single", "Length_pm": 154, "Index": 1},
        {"From": "C", "To": "H", "Type": "Single", "Length_pm": 109, "Index": 2},
        {"From": "C", "To": "H", "Type": "Single", "Length_pm": 109, "Index": 3},
        {"From": "C", "To": "H", "Type": "Single", "Length_pm": 109, "Index": 4},
        {"From": "C", "To": "H", "Type": "Single", "Length_pm": 109, "Index": 5},
        {"From": "C", "To": "H", "Type": "Single", "Length_pm": 109, "Index": 6},
        {"From": "C", "To": "O", "Type": "Single", "Length_pm": 143, "Index": 7},
        {"From": "O", "To": "H", "Type": "Single", "Length_pm": 96, "Index": 8}
    ],
    "DipoleMoment_D": 1.69,
    "ElectronConfiguration": "C: 1s2 2s2 2p2, H: 1s1, O: 1s2 2s2 2p4",
    "Applications": ["Alcoholic beverages", "Fuel", "Solvent", "Disinfectant"],
    "IUPAC_Name": "Ethanol",
    "Category": "Organic",
    "Color": "#FFC107"
}
