{
    "Name": "Acetic Acid",
    "Formula": "CH3COOH",
    "MolecularMass_amu": 60.052,
    "MolecularMass_g_mol": 60.052,
    "BondType": "Covalent",
    "Geometry": "Trigonal Planar",
    "BondAngle_deg": 120.0,
    "Polarity": "Polar",
    "MeltingPoint_K": 289.8,
    "BoilingPoint_K": 391.1,
    "Density_g_cm3": 1.049,
    "State_STP": "Liquid",
    "Composition": [
        {"Element": "C", "Count": 2},
        {"Element": "H", "Count": 4},
        {"Element": "O", "Count": 2}
    ],
    "Bonds": [
        {"From": "C", "To": "C", "Type": "Single", "Length_pm": 154, "Index": 1},
        {"From": "C", "To": "H", "Type": "Single", "Length_pm": 109, "Index": 2},
        {"From": "C", "To": "H", "Type": "Single", "Length_pm": 109, "Index": 3},
        {"From": "C", "To": "H", "Type": "Single", "Length_pm": 109, "Index": 4},
        {"From": "C", "To": "O", "Type": "Double", "Length_pm": 123, "Index": 5},
        {"From": "C", "To": "O", "Type": "Single", "Length_pm": 136, "Index": 6},
        {"From": "O", "To": "H", "Type": "Single", "Length_pm": 97, "Index": 7}
    ],
    "DipoleMoment_D": 1.74,
    "ElectronConfiguration": "C: 1s2 2s2 2p2, H: 1s1, O: 1s2 2s2 2p4",
    "Applications": ["Vinegar", "Chemical synthesis", "Preservative", "Descaling agent"],
    "IUPAC_Name": "Acetic acid",
    "Category": "Organic",
    "Color": "#FF9800"
}
