{
    "Name": "Glucose",
    "Formula": "C6H12O6",
    "MolecularMass_amu": 180.16,
    "MolecularMass_g_mol": 180.16,
    "BondType": "Covalent",
    "Geometry": "Chair Conformation",
    "BondAngle_deg": 109.5,
    "Polarity": "Polar",
    "MeltingPoint_K": 419.0,
    "BoilingPoint_K": 616.0,
    "Density_g_cm3": 1.54,
    "State_STP": "Solid",
    "Composition": [
        {"Element": "C", "Count": 6},
        {"Element": "H", "Count": 12},
        {"Element": "O", "Count": 6}
    ],
    "Bonds": [
        {"From": "C", "To": "C", "Type": "Single", "Length_pm": 154, "Index": 1},
        {"From": "C", "To": "O", "Type": "Single", "Length_pm": 143, "Index": 2},
        {"From": "C", "To": "H", "Type": "Single", "Length_pm": 109, "Index": 3},
        {"From": "O", "To": "H", "Type": "Single", "Length_pm": 96, "Index": 4}
    ],
    "DipoleMoment_D": 8.6,
    "ElectronConfiguration": "C: 1s2 2s2 2p2, H: 1s1, O: 1s2 2s2 2p4",
    "Applications": ["Energy source", "Food sweetener", "Fermentation", "Medical IV solutions"],
    "IUPAC_Name": "D-Glucose",
    "Category": "Organic",
    "Color": "#E91E63"
}
