{
  "Name": "Cupronickel (C71500 70/30)",
  "Formula": "Cu-Ni",
  "Category": "Copper Alloy",
  "SubCategory": "Cupronickel",
  "Description": "Copper-nickel alloy with excellent seawater corrosion resistance and biofouling resistance",

  "Components": [
    {"Element": "Cu", "MinPercent": 65.0, "MaxPercent": 70.0, "Role": "Base"},
    {"Element": "Ni", "MinPercent": 29.0, "MaxPercent": 33.0, "Role": "Corrosion Resistance"},
    {"Element": "Fe", "MinPercent": 0.4, "MaxPercent": 1.0, "Role": "Erosion Resistance"},
    {"Element": "Mn", "MinPercent": 0.0, "MaxPercent": 1.0, "Role": "Deoxidizer"},
    {"Element": "Zn", "MinPercent": 0.0, "MaxPercent": 0.5, "Role": "Impurity"},
    {"Element": "Pb", "MinPercent": 0.0, "MaxPercent": 0.02, "Role": "Impurity"},
    {"Element": "C", "MinPercent": 0.0, "MaxPercent": 0.05, "Role": "Impurity"},
    {"Element": "S", "MinPercent": 0.0, "MaxPercent": 0.02, "Role": "Impurity"}
  ],

  "PhysicalProperties": {
    "Density_g_cm3": 8.94,
    "MeltingPoint_K": 1443,
    "ThermalConductivity_W_mK": 29,
    "ThermalExpansion_per_K": 16.2e-6,
    "ElectricalResistivity_Ohm_m": 3.75e-7,
    "SpecificHeat_J_kgK": 377,
    "YoungsModulus_GPa": 150,
    "ShearModulus_GPa": 56,
    "PoissonsRatio": 0.34,
    "BrinellHardness_HB": 100
  },

  "MechanicalProperties": {
    "TensileStrength_MPa": 380,
    "YieldStrength_MPa": 125,
    "Elongation_percent": 45,
    "ReductionOfArea_percent": 55,
    "ImpactStrength_J": 120,
    "FatigueStrength_MPa": 160
  },

  "LatticeProperties": {
    "PrimaryStructure": "FCC",
    "SecondaryStructures": [],
    "LatticeParameters": {
      "a_pm": 358.5,
      "b_pm": 358.5,
      "c_pm": 358.5,
      "alpha_deg": 90,
      "beta_deg": 90,
      "gamma_deg": 90
    },
    "SpaceGroup": "Fm-3m",
    "SpaceGroupNumber": 225,
    "PointGroup": "m-3m",
    "AtomsPerUnitCell": 4,
    "AtomicPackingFactor": 0.74,
    "CoordinationNumber": 12,
    "BurgersVector_pm": 253.4,
    "StackingFaultEnergy_mJ_m2": 50
  },

  "PhaseComposition": {
    "Phases": [
      {
        "Name": "Alpha Phase",
        "Symbol": "alpha",
        "Structure": "FCC",
        "VolumePercent": 100,
        "SolidSolution": true,
        "Hardness_HV": 110
      }
    ],
    "TransformationTemperatures": {
      "Solidus_K": 1443,
      "Liquidus_K": 1513
    }
  },

  "Microstructure": {
    "GrainStructure": {
      "AverageGrainSize_um": 40,
      "GrainSizeDistribution": "LogNormal",
      "GrainSizeStdDev": 0.35,
      "ASTMGrainSizeNumber": 6,
      "VoronoiSeedDensity_per_mm2": 625,
      "GrainBoundaryWidth_nm": 0.5,
      "GrainAspectRatio": 1.0,
      "TwinDensity_per_mm": 80
    },
    "PhaseDistribution": {
      "NoiseType": "Simplex",
      "NoiseScale": 0.1,
      "NoiseOctaves": 2,
      "NoisePersistence": 0.5,
      "PhaseThreshold": 0.99
    },
    "Defects": {
      "PointDefects": {
        "VacancyConcentration": 1e-5,
        "InterstitialConcentration": 1e-7
      },
      "Dislocations": {
        "DislocationDensity_per_m2": 1e10,
        "BurgersVectorType": "a/2<110>",
        "SlipSystems": ["111<110>"]
      },
      "GrainBoundaries": {
        "LowAngleBoundaryFraction": 0.1,
        "HighAngleBoundaryFraction": 0.55,
        "TwinBoundaryFraction": 0.35,
        "GrainBoundaryEnergy_J_m2": 0.70
      }
    },
    "Inclusions": {
      "Types": [],
      "VolumeFraction": 0.0001,
      "AverageSize_um": 1
    }
  },

  "CrystallographicOrientation": {
    "PreferredOrientation": false,
    "TextureType": "Random",
    "MillerIndices": {
      "Planes": [[1,1,1], [2,0,0], [2,2,0]],
      "Directions": [[1,1,0], [1,1,2]]
    },
    "ODF": {
      "Phi1_range": [0, 360],
      "Phi_range": [0, 90],
      "Phi2_range": [0, 90]
    },
    "TextureStrength_mrd": 1.0
  },

  "CorrosionResistance": {
    "SeawaterCorrosionRate_mm_yr": 0.02,
    "AntiFoulingProperties": true,
    "StressCorrosionResistance": "Excellent",
    "CreviceCorrosionResistance": "Good"
  },

  "Applications": ["Ship hulls", "Heat exchangers", "Desalination plants", "Offshore platforms", "Coins"],
  "ProcessingMethods": ["Hot rolling", "Cold rolling", "Tube drawing", "Welding"],
  "Color": "#D4A574"
}
