{
  "symbol": "V",
  "name": "Vanadium",
  "atomic_number": 23,
  "atomic_mass": 50.942,
  "block": "d",
  "period": 4,
  "group": 5,
  "ionization_energy": 6.746,
  "electronegativity": 1.63,
  "atomic_radius": 171,
  "melting_point": 2183,
  "boiling_point": 3680,
  "density": 6.11,
  "electron_affinity": 50.6,
  "valence_electrons": 5,
  "electron_configuration": "1s² 2s² 2p⁶ 3s² 3p⁶ 3d³ 4s²",
  "primary_emission_wavelength": 437.9,
  "visible_emission_wavelength": 437.9,
  "isotopes": [
    {
      "mass_number": 50,
      "neutrons": 27,
      "abundance": 0.25,
      "is_stable": false,
      "half_life": "1.4e17 years"
    },
    {
      "mass_number": 51,
      "neutrons": 28,
      "abundance": 99.75,
      "is_stable": true,
      "half_life": null
    }
  ]
}
