{
  "symbol": "Mn",
  "name": "Manganese",
  "atomic_number": 25,
  "atomic_mass": 54.938,
  "block": "d",
  "period": 4,
  "group": 7,
  "ionization_energy": 7.434,
  "electronegativity": 1.55,
  "atomic_radius": 161,
  "melting_point": 1519,
  "boiling_point": 2334,
  "density": 7.44,
  "electron_affinity": 0,
  "valence_electrons": 7,
  "electron_configuration": "1s² 2s² 2p⁶ 3s² 3p⁶ 3d⁵ 4s²",
  "primary_emission_wavelength": 403.3,
  "visible_emission_wavelength": 403.3,
  "isotopes": [
    {
      "mass_number": 55,
      "neutrons": 30,
      "abundance": 100.0,
      "is_stable": true,
      "half_life": null
    }
  ]
}
