{
  "symbol": "Re",
  "name": "Rhenium",
  "atomic_number": 75,
  "atomic_mass": 186.207,
  "block": "d",
  "period": 6,
  "group": 7,
  "ionization_energy": 7.83352,
  "electronegativity": 1.9,
  "atomic_radius": 188,
  "melting_point": 3459,
  "boiling_point": 5869,
  "density": 21.02,
  "electron_affinity": 14.5,
  "valence_electrons": 7,
  "electron_configuration": "[Xe] 4f¹⁴ 5d⁵ 6s²",
  "primary_emission_wavelength": 346.0,
  "visible_emission_wavelength": 488.9,
  "isotopes": [
    {"mass_number": 185, "neutrons": 110, "abundance": 37.40, "is_stable": true, "half_life": null},
    {"mass_number": 187, "neutrons": 112, "abundance": 62.60, "is_stable": false, "half_life": "4.12e10 years"}
  ]
}
