{
  "symbol": "Fm",
  "name": "Fermium",
  "atomic_number": 100,
  "atomic_mass": 257,
  "block": "f",
  "period": 7,
  "group": null,
  "ionization_energy": 6.50,
  "electronegativity": 1.3,
  "atomic_radius": 200,
  "melting_point": 1800,
  "boiling_point": null,
  "density": null,
  "electron_affinity": null,
  "valence_electrons": 12,
  "electron_configuration": "[Rn] 5f¹² 7s²",
  "primary_emission_wavelength": 420.0,
  "visible_emission_wavelength": 420.0,
  "isotopes": [
    {
      "mass_number": 257,
      "neutrons": 157,
      "abundance": 100.0,
      "is_stable": false,
      "half_life": "100.5 days"
    }
  ]
}
