{
  "symbol": "Rf",
  "name": "Rutherfordium",
  "atomic_number": 104,
  "atomic_mass": 267,
  "block": "d",
  "period": 7,
  "group": 4,
  "ionization_energy": 6.01,
  "electronegativity": 1.3,
  "atomic_radius": 157,
  "melting_point": 2400,
  "boiling_point": 5800,
  "density": 23.2,
  "electron_affinity": null,
  "valence_electrons": 4,
  "electron_configuration": "[Rn] 5f¹⁴ 6d² 7s²",
  "primary_emission_wavelength": null,
  "visible_emission_wavelength": null,
  "isotopes": [
    {
      "mass_number": 267,
      "neutrons": 163,
      "abundance": 100.0,
      "is_stable": false,
      "half_life": "1.3 hours"
    }
  ]
}
