{
  "symbol": "Sg",
  "name": "Seaborgium",
  "atomic_number": 106,
  "atomic_mass": 269,
  "block": "d",
  "period": 7,
  "group": 6,
  "ionization_energy": 7.8,
  "electronegativity": 1.8,
  "atomic_radius": 143,
  "melting_point": 3000,
  "boiling_point": null,
  "density": 35.0,
  "electron_affinity": null,
  "valence_electrons": 6,
  "electron_configuration": "[Rn] 5f¹⁴ 6d⁴ 7s²",
  "primary_emission_wavelength": null,
  "visible_emission_wavelength": null,
  "isotopes": [
    {
      "mass_number": 269,
      "neutrons": 163,
      "abundance": 100.0,
      "is_stable": false,
      "half_life": "14 minutes"
    }
  ]
}
