{
  "symbol": "B",
  "name": "Boron",
  "atomic_number": 5,
  "atomic_mass": 10.81,
  "block": "p",
  "period": 2,
  "group": 13,
  "ionization_energy": 8.298,
  "electronegativity": 2.04,
  "atomic_radius": 87,
  "melting_point": 2349,
  "boiling_point": 4273,
  "density": 2.34,
  "electron_affinity": 26.7,
  "valence_electrons": 3,
  "electron_configuration": "1s² 2s² 2p¹",
  "primary_emission_wavelength": 518.0,
  "visible_emission_wavelength": 518.0,
  "isotopes": [
    {
      "mass_number": 10,
      "neutrons": 5,
      "abundance": 19.9,
      "is_stable": true,
      "half_life": null
    },
    {
      "mass_number": 11,
      "neutrons": 6,
      "abundance": 80.1,
      "is_stable": true,
      "half_life": null
    }
  ]
}
