{
  "symbol": "O",
  "name": "Oxygen",
  "atomic_number": 8,
  "atomic_mass": 15.999,
  "block": "p",
  "period": 2,
  "group": 16,
  "ionization_energy": 13.618,
  "electronegativity": 3.44,
  "atomic_radius": 48,
  "melting_point": 54,
  "boiling_point": 90,
  "density": 0.00143,
  "electron_affinity": 141.0,
  "valence_electrons": 6,
  "electron_configuration": "1s² 2s² 2p⁴",
  "primary_emission_wavelength": 777.4,
  "visible_emission_wavelength": 777.4,
  "isotopes": [
    {
      "mass_number": 16,
      "neutrons": 8,
      "abundance": 99.757,
      "is_stable": true,
      "half_life": null
    },
    {
      "mass_number": 17,
      "neutrons": 9,
      "abundance": 0.038,
      "is_stable": true,
      "half_life": null
    },
    {
      "mass_number": 18,
      "neutrons": 10,
      "abundance": 0.205,
      "is_stable": true,
      "half_life": null
    }
  ]
}
