{
  "symbol": "F",
  "name": "Fluorine",
  "atomic_number": 9,
  "atomic_mass": 18.998,
  "block": "p",
  "period": 2,
  "group": 17,
  "ionization_energy": 17.423,
  "electronegativity": 3.98,
  "atomic_radius": 42,
  "melting_point": 53,
  "boiling_point": 85,
  "density": 0.0017,
  "electron_affinity": 328.0,
  "valence_electrons": 7,
  "electron_configuration": "1s² 2s² 2p⁵",
  "primary_emission_wavelength": 685.6,
  "visible_emission_wavelength": 685.6,
  "isotopes": [
    {
      "mass_number": 19,
      "neutrons": 10,
      "abundance": 100.0,
      "is_stable": true,
      "half_life": null
    }
  ]
}
