{
  "symbol": "Na",
  "name": "Sodium",
  "atomic_number": 11,
  "atomic_mass": 22.99,
  "block": "s",
  "period": 3,
  "group": 1,
  "ionization_energy": 5.139,
  "electronegativity": 0.93,
  "atomic_radius": 190,
  "covalent_radius": 166,
  "melting_point": 371,
  "boiling_point": 1156,
  "density": 0.971,
  "electron_affinity": 52.8,
  "valence_electrons": 1,
  "electron_configuration": "1s² 2s² 2p⁶ 3s¹",
  "primary_emission_wavelength": 589.0,
  "visible_emission_wavelength": 589.0,
  "isotopes": [
    {
      "mass_number": 23,
      "neutrons": 12,
      "abundance": 100.0,
      "is_stable": true,
      "half_life": null
    }
  ]
}
