{
  "symbol": "Mg",
  "name": "Magnesium",
  "atomic_number": 12,
  "atomic_mass": 24.305,
  "block": "s",
  "period": 3,
  "group": 2,
  "ionization_energy": 7.646,
  "electronegativity": 1.31,
  "atomic_radius": 145,
  "covalent_radius": 141,
  "melting_point": 923,
  "boiling_point": 1363,
  "density": 1.74,
  "electron_affinity": 0,
  "valence_electrons": 2,
  "electron_configuration": "1s² 2s² 2p⁶ 3s²",
  "primary_emission_wavelength": 285.2,
  "visible_emission_wavelength": 518.0,
  "isotopes": [
    {
      "mass_number": 24,
      "neutrons": 12,
      "abundance": 78.99,
      "is_stable": true,
      "half_life": null
    },
    {
      "mass_number": 25,
      "neutrons": 13,
      "abundance": 10.0,
      "is_stable": true,
      "half_life": null
    },
    {
      "mass_number": 26,
      "neutrons": 14,
      "abundance": 11.01,
      "is_stable": true,
      "half_life": null
    }
  ]
}
