{
  "symbol": "S",
  "name": "Sulfur",
  "atomic_number": 16,
  "atomic_mass": 32.06,
  "block": "p",
  "period": 3,
  "group": 16,
  "ionization_energy": 10.360,
  "electronegativity": 2.58,
  "atomic_radius": 88,
  "melting_point": 388,
  "boiling_point": 718,
  "density": 2.07,
  "electron_affinity": 200.4,
  "valence_electrons": 6,
  "electron_configuration": "1s² 2s² 2p⁶ 3s² 3p⁴",
  "primary_emission_wavelength": 545.4,
  "visible_emission_wavelength": 545.4,
  "isotopes": [
    {
      "mass_number": 32,
      "neutrons": 16,
      "abundance": 94.99,
      "is_stable": true,
      "half_life": null
    },
    {
      "mass_number": 33,
      "neutrons": 17,
      "abundance": 0.75,
      "is_stable": true,
      "half_life": null
    },
    {
      "mass_number": 34,
      "neutrons": 18,
      "abundance": 4.25,
      "is_stable": true,
      "half_life": null
    },
    {
      "mass_number": 36,
      "neutrons": 20,
      "abundance": 0.01,
      "is_stable": true,
      "half_life": null
    }
  ]
}
