{
  "symbol": "Ni",
  "name": "Nickel",
  "atomic_number": 28,
  "atomic_mass": 58.693,
  "block": "d",
  "period": 4,
  "group": 10,
  "ionization_energy": 7.64,
  "electronegativity": 1.91,
  "atomic_radius": 149,
  "covalent_radius": 124,
  "melting_point": 1728,
  "boiling_point": 3186,
  "density": 8.91,
  "electron_affinity": 112.0,
  "valence_electrons": 10,
  "electron_configuration": "1s² 2s² 2p⁶ 3s² 3p⁶ 3d⁸ 4s²",
  "primary_emission_wavelength": 352.5,
  "visible_emission_wavelength": 505.0,
  "isotopes": [
    {
      "mass_number": 58,
      "neutrons": 30,
      "abundance": 68.077,
      "is_stable": true,
      "half_life": null
    },
    {
      "mass_number": 60,
      "neutrons": 32,
      "abundance": 26.223,
      "is_stable": true,
      "half_life": null
    },
    {
      "mass_number": 61,
      "neutrons": 33,
      "abundance": 1.14,
      "is_stable": true,
      "half_life": null
    },
    {
      "mass_number": 62,
      "neutrons": 34,
      "abundance": 3.635,
      "is_stable": true,
      "half_life": null
    },
    {
      "mass_number": 64,
      "neutrons": 36,
      "abundance": 0.926,
      "is_stable": true,
      "half_life": null
    }
  ]
}
