{
  "symbol": "Y",
  "name": "Yttrium",
  "atomic_number": 39,
  "atomic_mass": 88.906,
  "block": "d",
  "period": 5,
  "group": 3,
  "ionization_energy": 6.217,
  "electronegativity": 1.22,
  "atomic_radius": 212,
  "covalent_radius": 190,
  "melting_point": 1799,
  "boiling_point": 3609,
  "density": 4.47,
  "electron_affinity": 29.6,
  "valence_electrons": 3,
  "electron_configuration": "[Kr] 4d¹ 5s²",
  "primary_emission_wavelength": 412.8,
  "visible_emission_wavelength": 412.8,
  "isotopes": [
    {
      "mass_number": 89,
      "neutrons": 50,
      "abundance": 100.0,
      "is_stable": true,
      "half_life": null
    }
  ]
}
