{
  "symbol": "Tc",
  "name": "Technetium",
  "atomic_number": 43,
  "atomic_mass": 98,
  "block": "d",
  "period": 5,
  "group": 7,
  "ionization_energy": 7.119,
  "electronegativity": 1.9,
  "atomic_radius": 183,
  "melting_point": 2430,
  "boiling_point": 4538,
  "density": 11.50,
  "electron_affinity": 53,
  "valence_electrons": 7,
  "electron_configuration": "[Kr] 4d⁵ 5s²",
  "primary_emission_wavelength": 403.2,
  "visible_emission_wavelength": 403.2,
  "isotopes": [
    {"mass_number": 97, "neutrons": 54, "abundance": 0, "is_stable": false, "half_life": "4.21e6 years"},
    {"mass_number": 98, "neutrons": 55, "abundance": 0, "is_stable": false, "half_life": "4.2e6 years"},
    {"mass_number": 99, "neutrons": 56, "abundance": 0, "is_stable": false, "half_life": "2.111e5 years"}
  ]
}
