{
  "symbol": "Pd",
  "name": "Palladium",
  "atomic_number": 46,
  "atomic_mass": 106.42,
  "block": "d",
  "period": 5,
  "group": 10,
  "ionization_energy": 8.337,
  "electronegativity": 2.2,
  "atomic_radius": 169,
  "covalent_radius": 139,
  "melting_point": 1828.05,
  "boiling_point": 3236,
  "density": 12.02,
  "electron_affinity": 53.7,
  "valence_electrons": 10,
  "electron_configuration": "[Kr] 4d¹⁰",
  "primary_emission_wavelength": 340.5,
  "visible_emission_wavelength": 470.0,
  "isotopes": [
    {
      "mass_number": 102,
      "neutrons": 56,
      "abundance": 1.02,
      "is_stable": true,
      "half_life": null
    },
    {
      "mass_number": 104,
      "neutrons": 58,
      "abundance": 11.14,
      "is_stable": true,
      "half_life": null
    },
    {
      "mass_number": 105,
      "neutrons": 59,
      "abundance": 22.33,
      "is_stable": true,
      "half_life": null
    },
    {
      "mass_number": 106,
      "neutrons": 60,
      "abundance": 27.33,
      "is_stable": true,
      "half_life": null
    },
    {
      "mass_number": 108,
      "neutrons": 62,
      "abundance": 26.46,
      "is_stable": true,
      "half_life": null
    },
    {
      "mass_number": 110,
      "neutrons": 64,
      "abundance": 11.72,
      "is_stable": true,
      "half_life": null
    }
  ]
}
