{
  "symbol": "Te",
  "name": "Tellurium",
  "atomic_number": 52,
  "atomic_mass": 127.6,
  "block": "p",
  "period": 5,
  "group": 16,
  "ionization_energy": 9.01,
  "electronegativity": 2.1,
  "atomic_radius": 123,
  "covalent_radius": 138,
  "melting_point": 722.66,
  "boiling_point": 1261,
  "density": 6.24,
  "electron_affinity": 190.2,
  "valence_electrons": 6,
  "electron_configuration": "[Kr] 4d¹⁰ 5s² 5p⁴",
  "primary_emission_wavelength": 214.3,
  "visible_emission_wavelength": 470.0,
  "isotopes": [
    {
      "mass_number": 120,
      "neutrons": 68,
      "abundance": 0.09,
      "is_stable": true,
      "half_life": null
    },
    {
      "mass_number": 122,
      "neutrons": 70,
      "abundance": 2.55,
      "is_stable": true,
      "half_life": null
    },
    {
      "mass_number": 123,
      "neutrons": 71,
      "abundance": 0.89,
      "is_stable": true,
      "half_life": null
    },
    {
      "mass_number": 124,
      "neutrons": 72,
      "abundance": 4.74,
      "is_stable": true,
      "half_life": null
    },
    {
      "mass_number": 125,
      "neutrons": 73,
      "abundance": 7.07,
      "is_stable": true,
      "half_life": null
    },
    {
      "mass_number": 126,
      "neutrons": 74,
      "abundance": 18.84,
      "is_stable": true,
      "half_life": null
    },
    {
      "mass_number": 128,
      "neutrons": 76,
      "abundance": 31.74,
      "is_stable": true,
      "half_life": null
    },
    {
      "mass_number": 130,
      "neutrons": 78,
      "abundance": 34.08,
      "is_stable": true,
      "half_life": null
    }
  ]
}
