{
  "symbol": "Lu",
  "name": "Lutetium",
  "atomic_number": 71,
  "atomic_mass": 174.967,
  "block": "f",
  "period": 6,
  "group": null,
  "ionization_energy": 5.4259,
  "electronegativity": 1.27,
  "atomic_radius": 217,
  "covalent_radius": 187,
  "melting_point": 1925,
  "boiling_point": 3675,
  "density": 9.84,
  "electron_affinity": 33.4,
  "valence_electrons": 3,
  "electron_configuration": "[Xe] 4f¹⁴ 5d¹ 6s²",
  "primary_emission_wavelength": 451.9,
  "visible_emission_wavelength": 451.9,
  "isotopes": [
    {
      "mass_number": 175,
      "neutrons": 104,
      "abundance": 97.401,
      "is_stable": true,
      "half_life": null
    },
    {
      "mass_number": 176,
      "neutrons": 105,
      "abundance": 2.599,
      "is_stable": false,
      "half_life": "3.76e10 years"
    }
  ]
}
