{
  "symbol": "Os",
  "name": "Osmium",
  "atomic_number": 76,
  "atomic_mass": 190.23,
  "block": "d",
  "period": 6,
  "group": 8,
  "ionization_energy": 8.43823,
  "electronegativity": 2.2,
  "atomic_radius": 185,
  "covalent_radius": 144,
  "melting_point": 3306,
  "boiling_point": 5285,
  "density": 22.59,
  "electron_affinity": 106.0,
  "valence_electrons": 8,
  "electron_configuration": "[Xe] 4f¹⁴ 5d⁶ 6s²",
  "primary_emission_wavelength": 330.2,
  "visible_emission_wavelength": 442.0,
  "isotopes": [
    {
      "mass_number": 184,
      "neutrons": 108,
      "abundance": 0.02,
      "is_stable": true,
      "half_life": null
    },
    {
      "mass_number": 186,
      "neutrons": 110,
      "abundance": 1.59,
      "is_stable": true,
      "half_life": null
    },
    {
      "mass_number": 187,
      "neutrons": 111,
      "abundance": 1.96,
      "is_stable": true,
      "half_life": null
    },
    {
      "mass_number": 188,
      "neutrons": 112,
      "abundance": 13.24,
      "is_stable": true,
      "half_life": null
    },
    {
      "mass_number": 189,
      "neutrons": 113,
      "abundance": 16.15,
      "is_stable": true,
      "half_life": null
    },
    {
      "mass_number": 190,
      "neutrons": 114,
      "abundance": 26.26,
      "is_stable": true,
      "half_life": null
    },
    {
      "mass_number": 192,
      "neutrons": 116,
      "abundance": 40.78,
      "is_stable": true,
      "half_life": null
    }
  ]
}
