{
  "symbol": "Bi",
  "name": "Bismuth",
  "atomic_number": 83,
  "atomic_mass": 208.98,
  "block": "p",
  "period": 6,
  "group": 15,
  "ionization_energy": 7.28556,
  "electronegativity": 2.02,
  "atomic_radius": 143,
  "covalent_radius": 148,
  "melting_point": 545,
  "boiling_point": 1837,
  "density": 9.78,
  "electron_affinity": 91.2,
  "valence_electrons": 5,
  "electron_configuration": "[Xe] 4f¹⁴ 5d¹⁰ 6s² 6p³",
  "primary_emission_wavelength": 306.8,
  "visible_emission_wavelength": 472.3,
  "isotopes": [
    {
      "mass_number": 209,
      "neutrons": 126,
      "abundance": 100,
      "is_stable": false,
      "half_life": "2.01e19 years"
    }
  ]
}
