{
  "symbol": "Es",
  "name": "Einsteinium",
  "atomic_number": 99,
  "atomic_mass": 252,
  "block": "f",
  "period": 7,
  "group": null,
  "ionization_energy": 6.42,
  "electronegativity": 1.3,
  "atomic_radius": 186,
  "covalent_radius": 165,
  "melting_point": 1133,
  "boiling_point": 1269,
  "density": 8.84,
  "electron_affinity": null,
  "valence_electrons": 11,
  "electron_configuration": "[Rn] 5f¹¹ 7s²",
  "primary_emission_wavelength": 418.0,
  "visible_emission_wavelength": 418.0,
  "isotopes": [
    {
      "mass_number": 252,
      "neutrons": 153,
      "abundance": 100.0,
      "is_stable": false,
      "half_life": "471.7 days"
    }
  ]
}
