{
  "symbol": "No",
  "name": "Nobelium",
  "atomic_number": 102,
  "atomic_mass": 259,
  "block": "f",
  "period": 7,
  "group": null,
  "ionization_energy": 6.65,
  "electronegativity": 1.3,
  "atomic_radius": 200,
  "covalent_radius": 176,
  "melting_point": 1100,
  "boiling_point": null,
  "density": null,
  "electron_affinity": null,
  "valence_electrons": 14,
  "electron_configuration": "[Rn] 5f¹⁴ 7s²",
  "primary_emission_wavelength": 425.0,
  "visible_emission_wavelength": 425.0,
  "isotopes": [
    {
      "mass_number": 259,
      "neutrons": 157,
      "abundance": 100.0,
      "is_stable": false,
      "half_life": "58 minutes"
    }
  ]
}
