{
  "symbol": "Hs",
  "name": "Hassium",
  "atomic_number": 108,
  "atomic_mass": 269,
  "block": "d",
  "period": 7,
  "group": 8,
  "ionization_energy": 7.6,
  "electronegativity": 2.0,
  "atomic_radius": 134,
  "melting_point": 2700,
  "boiling_point": null,
  "density": 40.7,
  "electron_affinity": null,
  "valence_electrons": 8,
  "electron_configuration": "[Rn] 5f¹⁴ 6d⁶ 7s²",
  "primary_emission_wavelength": null,
  "visible_emission_wavelength": null,
  "isotopes": [
    {
      "mass_number": 269,
      "neutrons": 161,
      "abundance": 100.0,
      "is_stable": false,
      "half_life": "16 seconds"
    }
  ]
}
